LAMMPS data file for Si (atomic)

2 atoms
1 atom types

0.0 5.43 xlo xhi
0.0 5.43 ylo yhi
0.0 5.43 zlo zhi

Masses

1 28.0855

Atoms # atomic

1 1 0.0000 0.0000 0.0000
2 1 1.3575 1.3575 1.3575

