<UPF version="2.0.1">
<PP_INFO>
Generated by new atomic code, or converted to UPF format
Author:
Generation date:
Pseudopotential type: US
Element: Cu
Functional:  SLA  PZ   NOGX NOGC
Suggested minimum cutoff for wavefunctions:   0. Ry
Suggested minimum cutoff for charge density:   0. Ry
The Pseudo was generated with a Scalar-Relativistic Calculation
L component and cutoff radius for Local Potential:  0   0.0000
Valence configuration:
nl pn  l   occ       Rcut    Rcut US       E pseu
3D  0  2 10.00      1.800      2.500     0.000000
4S  0  0  1.00      1.800      2.500     0.000000
Generation configuration: not available.
</PP_INFO>
<!--
END OF HUMAN READABLE SECTION
-->
<PP_HEADER generated="Generated by new atomic code, or converted to UPF format" author="" date="" comment="" element="Cu" pseudo_type="US" relativistic="scalar" is_ultrasoft="true" is_paw="false" is_coulomb="false" has_so="false" has_wfc="false" has_gipaw="false" paw_as_gipaw="false" core_correction="false" functional=" SLA  PZ   NOGX NOGC" z_valence="1.100000000000e1" total_psenergy="-8.751026251800e1" wfc_cutoff="0.000000000000e0" rho_cutoff="0.000000000000e0" l_max="2" l_max_rho="0" l_local="0" mesh_size="899" number_of_wfc="2" number_of_proj="3"/>
<PP_MESH dx="1.500000000000e-2" mesh="899" xmin="-5.500000000003e0" rmax="9.975370221450e1" zmesh="2.900000000000e1">
<PP_R>
1.409231530500000e-4 1.430529337680000e-4 1.452149020000000e-4 1.474095441970000e-4
1.496373541630000e-4 1.518988331660000e-4 1.541944900460000e-4 1.565248413380000e-4
1.588904113790000e-4 1.612917324330000e-4 1.637293448070000e-4 1.662037969750001e-4
1.687156456980000e-4 1.712654561530000e-4 1.738538020580000e-4 1.764812658030000e-4
1.791484385760000e-4 1.818559205040000e-4 1.846043207810000e-4 1.873942578100000e-4
1.902263593370000e-4 1.931012625970000e-4 1.960196144560000e-4 1.989820715550000e-4
2.019893004600000e-4 2.050419778090000e-4 2.081407904690000e-4 2.112864356840000e-4
2.144796212390000e-4 2.177210656140000e-4 2.210114981470000e-4 2.243516591990000e-4
2.277423003210000e-4 2.311841844220000e-4 2.346780859390000e-4 2.382247910160000e-4
2.418250976750000e-4 2.454798160020000e-4 2.491897683230000e-4 2.529557893940000e-4
2.567787265840000e-4 2.606594400700001e-4 2.645988030310000e-4 2.685977018380000e-4
2.726570362620000e-4 2.767777196690000e-4 2.809606792300000e-4 2.852068561299999e-4
2.895172057760000e-4 2.938926980140000e-4 2.983343173490000e-4 3.028430631640000e-4
3.074199499460000e-4 3.120660075140000e-4 3.167822812500000e-4 3.215698323350000e-4
3.264297379899999e-4 3.313630917130000e-4 3.363710035290000e-4 3.414546002400000e-4
3.466150256770000e-4 3.518534409570000e-4 3.571710247450000e-4 3.625689735210000e-4
3.680485018460000e-4 3.736108426360000e-4 3.792572474420000e-4 3.849889867280000e-4
3.908073501610000e-4 3.967136468960000e-4 4.027092058760000e-4 4.087953761250000e-4
4.149735270590000e-4 4.212450487880000e-4 4.276113524289999e-4 4.340738704289999e-4
4.406340568810000e-4 4.472933878539999e-4 4.540533617269999e-4 4.609154995220000e-4
4.678813452480001e-4 4.749524662520001e-4 4.821304535630000e-4 4.894169222610000e-4
4.968135118310000e-4 5.043218865379999e-4 5.119437357960001e-4 5.196807745550000e-4
5.275347436800000e-4 5.355074103480000e-4 5.436005684430000e-4 5.518160389590000e-4
5.601556704120000e-4 5.686213392539999e-4 5.772149502960001e-4 5.859384371370000e-4
5.947937625980000e-4 6.037829191650000e-4 6.129079294370000e-4 6.221708465780001e-4
6.315737547840000e-4 6.411187697500001e-4 6.508080391430000e-4 6.606437430910001e-4
6.706280946680000e-4 6.807633403960001e-4 6.910517607480000e-4 7.014956706610000e-4
7.120974200590000e-4 7.228593943810001e-4 7.337840151160001e-4 7.448737403510000e-4
7.561310653190001e-4 7.675585229670001e-4 7.791586845209999e-4 7.909341600670000e-4
8.028875991340000e-4 8.150216912989999e-4 8.273391667830001e-4 8.398427970700000e-4
8.525353955290001e-4 8.654198180490001e-4 8.784989636790000e-4 8.917757752819998e-4
9.052532401960001e-4 9.189343909089999e-4 9.328223057360001e-4 9.469201095180001e-4
9.612309743190000e-4 9.757581201440001e-4 9.905048156630000e-4 1.005474378940000e-3
1.020670178200000e-3 1.036095632560000e-3 1.051754212800000e-3 1.067649442180000e-3
1.083784897190000e-3 1.100164208370000e-3 1.116791061130000e-3 1.133669196600000e-3
1.150802412430000e-3 1.168194563640000e-3 1.185849563570000e-3 1.203771384650000e-3
1.221964059370000e-3 1.240431681150000e-3 1.259178405300000e-3 1.278208449900000e-3
1.297526096800000e-3 1.317135692540000e-3 1.337041649370000e-3 1.357248446210000e-3
1.377760629680000e-3 1.398582815100000e-3 1.419719687550000e-3 1.441176002930000e-3
1.462956588980000e-3 1.485066346440000e-3 1.507510250090000e-3 1.530293349910000e-3
1.553420772190000e-3 1.576897720700000e-3 1.600729477840000e-3 1.624921405870000e-3
1.649478948080000e-3 1.674407630000000e-3 1.699713060710000e-3 1.725400934020000e-3
1.751477029820000e-3 1.777947215350000e-3 1.804817446500000e-3 1.832093769190000e-3
1.859782320700000e-3 1.887889331090000e-3 1.916421124530000e-3 1.945384120820000e-3
1.974784836740000e-3 2.004629887580000e-3 2.034925988600000e-3 2.065679956560000e-3
2.096898711210000e-3 2.128589276930000e-3 2.160758784210000e-3 2.193414471340000e-3
2.226563685970000e-3 2.260213886830000e-3 2.294372645350000e-3 2.329047647390000e-3
2.364246694980000e-3 2.399977708040000e-3 2.436248726220000e-3 2.473067910640000e-3
2.510443545770000e-3 2.548384041300000e-3 2.586897933980000e-3 2.625993889610000e-3
2.665680704940000e-3 2.705967309680000e-3 2.746862768480001e-3 2.788376282990000e-3
2.830517193930000e-3 2.873294983180000e-3 2.916719275920000e-3 2.960799842800000e-3
3.005546602140000e-3 3.050969622139999e-3 3.097079123180000e-3 3.143885480090000e-3
3.191399224490000e-3 3.239631047190001e-3 3.288591800540000e-3 3.338292500910000e-3
3.388744331180000e-3 3.439958643230000e-3 3.491946960480000e-3 3.544720980530000e-3
3.598292577750000e-3 3.652673805980000e-3 3.707876901230000e-3 3.763914284430000e-3
3.820798564220000e-3 3.878542539800000e-3 3.937159203820000e-3 3.996661745270000e-3
4.057063552480000e-3 4.118378216089999e-3 4.180619532190001e-3 4.243801505310000e-3
4.307938351680001e-3 4.373044502340000e-3 4.439134606480000e-3 4.506223534620001e-3
4.574326382070000e-3 4.643458472259999e-3 4.713635360190000e-3 4.784872835960000e-3
4.857186928310001e-3 4.930593908210001e-3 5.005110292540000e-3 5.080752847800001e-3
5.157538593880000e-3 5.235484807910000e-3 5.314609028110000e-3 5.394929057760000e-3
5.476462969200000e-3 5.559229107919999e-3 5.643246096640000e-3 5.728532839550001e-3
5.815108526500000e-3 5.902992637410000e-3 5.992204946570000e-3 6.082765527119999e-3
6.174694755570000e-3 6.268013316390000e-3 6.362742206650001e-3 6.458902740759999e-3
6.556516555220000e-3 6.655605613580001e-3 6.756192211270000e-3 6.858298980720000e-3
6.961948896370000e-3 7.067165279890000e-3 7.173971805410001e-3 7.282392504860001e-3
7.392451773340001e-3 7.504174374660000e-3 7.617585446880000e-3 7.732710507950000e-3
7.849575461510000e-3 7.968206602670000e-3 8.088630623920000e-3 8.210874621199999e-3
8.334966099900001e-3 8.460932981140001e-3 8.588803607989998e-3 8.718606751890000e-3
8.850371619090001e-3 8.984127857239999e-3 9.119905562060000e-3 9.257735284110002e-3
9.397648035660000e-3 9.539675297650000e-3 9.683849026839999e-3 9.830201662910000e-3
9.978766135830000e-3 1.012957587320000e-2 1.028266480790000e-2 1.043806738560000e-2
1.059581857250000e-2 1.075595386320000e-2 1.091850928890000e-2 1.108352142530000e-2
1.125102740080000e-2 1.142106490490000e-2 1.159367219680000e-2 1.176888811380000e-2
1.194675208030000e-2 1.212730411650000e-2 1.231058484720000e-2 1.249663551150000e-2
1.268549797140000e-2 1.287721472200000e-2 1.307182890010000e-2 1.326938429490000e-2
1.346992535720000e-2 1.367349720950000e-2 1.388014565630000e-2 1.408991719450000e-2
1.430285902350000e-2 1.451901905610000e-2 1.473844592930000e-2 1.496118901490000e-2
1.518729843120000e-2 1.541682505380000e-2 1.564982052700000e-2 1.588633727580000e-2
1.612642851760000e-2 1.637014827380000e-2 1.661755138240000e-2 1.686869351020000e-2
1.712363116520000e-2 1.738242170950000e-2 1.764512337190000e-2 1.791179526160000e-2
1.818249738080000e-2 1.845729063860000e-2 1.873623686460000e-2 1.901939882300000e-2
1.930684022640000e-2 1.959862575030000e-2 1.989482104760000e-2 2.019549276360000e-2
2.050070855070000e-2 2.081053708370000e-2 2.112504807530000e-2 2.144431229190000e-2
2.176840156920000e-2 2.209738882870000e-2 2.243134809390000e-2 2.277035450710000e-2
2.311448434610000e-2 2.346381504150000e-2 2.381842519440000e-2 2.417839459340000e-2
2.454380423320000e-2 2.491473633250000e-2 2.529127435260000e-2 2.567350301610000e-2
2.606150832610000e-2 2.645537758540000e-2 2.685519941630000e-2 2.726106378030000e-2
2.767306199870000e-2 2.809128677280000e-2 2.851583220490000e-2 2.894679381960001e-2
2.938426858500000e-2 2.982835493490000e-2 3.027915279040000e-2 3.073676358300000e-2
3.120129027710000e-2 3.167283739320000e-2 3.215151103120000e-2 3.263741889490000e-2
3.313067031560000e-2 3.363137627680000e-2 3.413964943960001e-2 3.465560416760000e-2
3.517935655260001e-2 3.571102444140000e-2 3.625072746120000e-2 3.679858704770000e-2
3.735472647160000e-2 3.791927086640000e-2 3.849234725720000e-2 3.907408458850000e-2
3.966461375370000e-2 4.026406762430001e-2 4.087258107999999e-2 4.149029103890000e-2
4.211733648830000e-2 4.275385851610000e-2 4.340000034240000e-2 4.405590735190001e-2
4.472172712640000e-2 4.539760947820000e-2 4.608370648360000e-2 4.678017251750000e-2
4.748716428740000e-2 4.820484086970000e-2 4.893336374460000e-2 4.967289683270000e-2
5.042360653220000e-2 5.118566175590001e-2 5.195923396940000e-2 5.274449722980000e-2
5.354162822450000e-2 5.435080631150000e-2 5.517221355920000e-2 5.600603478770000e-2
5.685245761030000e-2 5.771167247580000e-2 5.858387271100000e-2 5.946925456470000e-2
6.036801725160000e-2 6.128036299700001e-2 6.220649708270000e-2 6.314662789260001e-2
6.410096696020000e-2 6.506972901580000e-2 6.605313203500001e-2 6.705139728749999e-2
6.806474938730000e-2 6.909341634280000e-2 7.013762960849999e-2 7.119762413680000e-2
7.227363843079999e-2 7.336591459850000e-2 7.447469840640000e-2 7.560023933560000e-2
7.674279063769999e-2 7.790260939140000e-2 7.907995656080001e-2 8.027509705410001e-2
8.148829978300000e-2 8.271983772300000e-2 8.396998797549999e-2 8.523903182960002e-2
8.652725482539999e-2 8.783494681860001e-2 8.916240204539999e-2 9.050991918880001e-2
9.187780144580000e-2 9.326635659580001e-2 9.467589706949999e-2 9.610674001949999e-2
9.755920739140000e-2 9.903362599659999e-2 1.005303275850000e-1 1.020496489220000e-1
1.035919318600000e-1 1.051575234200000e-1 1.067467758660000e-1 1.083600467880000e-1
1.099976991760000e-1 1.116601015120000e-1 1.133476278410000e-1 1.150606578640000e-1
1.167995770210000e-1 1.185647765760000e-1 1.203566537060000e-1 1.221756115900000e-1
1.240220595020000e-1 1.258964129010000e-1 1.277990935240000e-1 1.297305294830000e-1
1.316911553570000e-1 1.336814122980000e-1 1.357017481200000e-1 1.377526174070000e-1
1.398344816150000e-1 1.419478091710000e-1 1.440930755840000e-1 1.462707635460000e-1
1.484813630460000e-1 1.507253714800000e-1 1.530032937590000e-1 1.553156424240000e-1
1.576629377640000e-1 1.600457079290000e-1 1.624644890550000e-1 1.649198253760000e-1
1.674122693530000e-1 1.699423817970000e-1 1.725107319940000e-1 1.751178978340000e-1
1.777644659390000e-1 1.804510317990000e-1 1.831781999030000e-1 1.859465838740000e-1
1.887568066110000e-1 1.916095004260000e-1 1.945053071870000e-1 1.974448784630000e-1
2.004288756690000e-1 2.034579702180000e-1 2.065328436680000e-1 2.096541878800000e-1
2.128227051680000e-1 2.160391084630000e-1 2.193041214690000e-1 2.226184788270000e-1
2.259829262820000e-1 2.293982208490000e-1 2.328651309840000e-1 2.363844367550000e-1
2.399569300220000e-1 2.435834146100000e-1 2.472647064950000e-1 2.510016339810000e-1
2.547950378940000e-1 2.586457717660000e-1 2.625547020270000e-1 2.665227082040000e-1
2.705506831140000e-1 2.746395330700000e-1 2.787901780790000e-1 2.830035520550000e-1
2.872806030240000e-1 2.916222933400000e-1 2.960295999030000e-1 3.005035143740000e-1
3.050450434040000e-1 3.096552088560000e-1 3.143350480360000e-1 3.190856139280000e-1
3.239079754290000e-1 3.288032175910000e-1 3.337724418650000e-1 3.388167663450000e-1
3.439373260280000e-1 3.491352730600000e-1 3.544117770010000e-1 3.597680250880000e-1
3.652052224980000e-1 3.707245926230000e-1 3.763273773460000e-1 3.820148373170000e-1
3.877882522370000e-1 3.936489211510000e-1 3.995981627320000e-1 4.056373155860000e-1
4.117677385470000e-1 4.179908109859999e-1 4.243079331210000e-1 4.307205263310000e-1
4.372300334770000e-1 4.438379192250000e-1 4.505456703770000e-1 4.573547962060000e-1
4.642668287930000e-1 4.712833233760000e-1 4.784058586940000e-1 4.856360373490000e-1
4.929754861610000e-1 5.004258565380000e-1 5.079888248430001e-1 5.156660927770000e-1
5.234593877569999e-1 5.313704633080000e-1 5.394010994550000e-1 5.475531031250000e-1
5.558283085530000e-1 5.642285776950001e-1 5.727558006480001e-1 5.814118960719999e-1
5.901988116260000e-1 5.991185244020000e-1 6.081730413740000e-1 6.173643998460000e-1
6.266946679120000e-1 6.361659449219999e-1 6.457803619540000e-1 6.555400822920000e-1
6.654473019140000e-1 6.755042499860000e-1 6.857131893640000e-1 6.960764171029999e-1
7.065962649720000e-1 7.172750999820000e-1 7.281153249150000e-1 7.391193788680001e-1
7.502897378000000e-1 7.616289150880000e-1 7.731394620950000e-1 7.848239687420000e-1
7.966850640940000e-1 8.087254169460000e-1 8.209477364290001e-1 8.333547726150000e-1
8.459493171420000e-1 8.587342038330000e-1 8.717123093440000e-1 8.848865538009999e-1
8.982599014660000e-1 9.118353613989999e-1 9.256159881340000e-1 9.396048823720001e-1
9.538051916730000e-1 9.682201111660000e-1 9.828528842680001e-1 9.977068034160000e-1
1.012785210800000e0 1.028091499140000e0 1.043629112390000e0 1.059401546600000e0
1.075412350630000e0 1.091665126970000e0 1.108163532580000e0 1.124911279650000e0
1.141912136510000e0 1.159169928410000e0 1.176688538440000e0 1.194471908350000e0
1.212524039490000e0 1.230848993640000e0 1.249450894020000e0 1.268333926110000e0
1.287502338690000e0 1.306960444730000e0 1.326712622380000e0 1.346763315970000e0
1.367117036990000e0 1.387778365100000e0 1.408751949210000e0 1.430042508440000e0
1.451654833280000e0 1.473593786570000e0 1.495864304680000e0 1.518471398580000e0
1.541420154940000e0 1.564715737340000e0 1.588363387390000e0 1.612368425890000e0
1.636736254100000e0 1.661472354870000e0 1.686582293920000e0 1.712071721110000e0
1.737946371660000e0 1.764212067470000e0 1.790874718440000e0 1.817940323780000e0
1.845414973360000e0 1.873304849100000e0 1.901616226330000e0 1.930355475230000e0
1.959529062260000e0 1.989143551590000e0 2.019205606620000e0 2.049721991420000e0
2.080699572320000e0 2.112145319410000e0 2.144066308100000e0 2.176469720750000e0
2.209362848270000e0 2.242753091760000e0 2.276647964150000e0 2.311055091940000e0
2.345982216880000e0 2.381437197710000e0 2.417428011950000e0 2.453962757700000e0
2.491049655430000e0 2.528697049830000e0 2.566913411740000e0 2.605707339990000e0
2.645087563390000e0 2.685062942650000e0 2.725642472400000e0 2.766835283200000e0
2.808650643620000e0 2.851097962280000e0 2.894186790010000e0 2.937926821980000e0
2.982327899870000e0 3.027400014130000e0 3.073153306160000e0 3.119598070650000e0
3.166744757870000e0 3.214603976010000e0 3.263186493620000e0 3.312503241950000e0
3.362565317480000e0 3.413383984400000e0 3.464970677120000e0 3.517337002850000e0
3.570494744250000e0 3.624455862030000e0 3.679232497670000e0 3.734836976140000e0
3.791281808690000e0 3.848579695650000e0 3.906743529260000e0 3.965786396660000e0
4.025721582720000e0 4.086562573130000e0 4.148323057350000e0 4.211016931760000e0
4.274658302750000e0 4.339261489890000e0 4.404841029170000e0 4.471411676270000e0
4.538988409860000e0 4.607586434980000e0 4.677221186500000e0 4.747908332510000e0
4.819663777930000e0 4.892503668030000e0 4.966444392100000e0 5.041502587110000e0
5.117695141470000e0 5.195039198820000e0 5.273552161920000e0 5.353251696500000e0
5.434155735290000e0 5.516282482050000e0 5.599650415640000e0 5.684278294190000e0
5.770185159350000e0 5.857390340510000e0 5.945913459200000e0 6.035774433510000e0
6.126993482530000e0 6.219591130930000e0 6.313588213580000e0 6.409005880210000e0
6.505865600200000e0 6.604189167390000e0 6.703998705010000e0 6.805316670630000e0
6.908165861200000e0 7.012569418240000e0 7.118550832980000e0 7.226133951690000e0
7.335342981020000e0 7.446202493470000e0 7.558737432890000e0 7.672973120130000e0
7.788935258690000e0 7.906649940540000e0 8.026143651989999e0 8.147443279619999e0
8.270576116350000e0 8.395569867610000e0 8.522452657500001e0 8.651253035200000e0
8.781999981329999e0 8.914722914500000e0 9.049451697940000e0 9.186216646189999e0
9.325048531940000e0 9.465978592940001e0 9.609038539069999e0 9.754260559410000e0
9.901677329520000e0 1.005132201880000e1 1.020322829790000e1 1.035743034650000e1
1.051396286060000e1 1.067286106070000e1 1.083416069950000e1 1.099789807020000e1
1.116411001440000e1 1.133283393040000e1 1.150410778190000e1 1.167797010610000e1
1.185446002290000e1 1.203361724320000e1 1.221548207820000e1 1.240009544820000e1
1.258749889190000e1 1.277773457600000e1 1.297084530430000e1 1.316687452750000e1
1.336586635300000e1 1.356786555490000e1 1.377291758370000e1 1.398106857710000e1
1.419236536990000e1 1.440685550480000e1 1.462458724290000e1 1.484560957490000e1
1.506997223170000e1 1.529772569580000e1 1.552892121270000e1 1.576361080240000e1
1.600184727100000e1 1.624368422280000e1 1.648917607200000e1 1.673837805550000e1
1.699134624460000e1 1.724813755830000e1 1.750880977570000e1 1.777342154920000e1
1.804203241750000e1 1.831470281920000e1 1.859149410640000e1 1.887246855810000e1
1.915768939490000e1 1.944722079260000e1 1.974112789700000e1 2.003947683850000e1
2.034233474680000e1 2.064976976630000e1 2.096185107110000e1 2.127864888080000e1
2.160023447630000e1 2.192668021560000e1 2.225805955050000e1 2.259444704270000e1
2.293591838080000e1 2.328255039740000e1 2.363442108590000e1 2.399160961900000e1
2.435419636540000e1 2.472226290870000e1 2.509589206550000e1 2.547516790390000e1
2.586017576250000e1 2.625100226980000e1 2.664773536330000e1 2.705046430970000e1
2.745927972470000e1 2.787427359350000e1 2.829553929140000e1 2.872317160500000e1
2.915726675350000e1 2.959792240990000e1 3.004523772380000e1 3.049931334290000e1
3.096025143620000e1 3.142815571670000e1 3.190313146480000e1 3.238528555210000e1
3.287472646520000e1 3.337156433050000e1 3.387591093860000e1 3.438787976950000e1
3.490758601840001e1 3.543514662150001e1 3.597068028210000e1 3.651430749750000e1
3.706615058610000e1 3.762633371490000e1 3.819498292760001e1 3.877222617260000e1
3.935819333200000e1 3.995301625100000e1 4.055682876720001e1 4.116976674100000e1
4.179196808600000e1 4.242357280010000e1 4.306472299700000e1 4.371556293830000e1
4.437623906570000e1 4.504690003410000e1 4.572769674510000e1 4.641878238070000e1
4.712031243820000e1 4.783244476480000e1 4.855533959330000e1 4.928915957800001e1
5.003406983150001e1 5.079023796190000e1 5.155783411010001e1 5.233703098840000e1
5.312800391950001e1 5.393093087570000e1 5.474599251880001e1 5.557337224120000e1
5.641325620680000e1 5.726583339300000e1 5.813129563330000e1 5.900983766040000e1
5.990165715000000e1 6.080695476510001e1 6.172593420150001e1 6.265880223360000e1
6.360576876050001e1 6.456704685370001e1 6.554285280480001e1 6.653340617440000e1
6.753892984100000e1 6.855965005170001e1 6.959579647300000e1 7.064760224210001e1
7.171530401970000e1 7.279914204330000e1 7.389936018100001e1 7.501620598640000e1
7.614993075470000e1 7.730078957870001e1 7.846904140650000e1 7.965494909960000e1
8.085877949230001e1 8.208080345150000e1 8.332129593780001e1 8.458053606710001e1
8.585880717390001e1 8.715639687460001e1 8.847359713219999e1 8.981070432250000e1
9.116801930010000e1 9.254584746670000e1 9.394449883929999e1 9.536428812060000e1
9.680553476900002e1 9.826856307110001e1 9.975370221450000e1
</PP_R>
<PP_RAB>
2.113847295760000e-6 2.145794006530000e-6 2.178223530000000e-6 2.211143162950000e-6
2.244560312450000e-6 2.278482497490000e-6 2.312917350700000e-6 2.347872620070000e-6
2.383356170690000e-6 2.419375986500000e-6 2.455940172110000e-6 2.493056954620000e-6
2.530734685470000e-6 2.568981842300000e-6 2.607807030870001e-6 2.647218987040000e-6
2.687226578640000e-6 2.727838807560000e-6 2.769064811720000e-6 2.810913867150000e-6
2.853395390050000e-6 2.896518938950000e-6 2.940294216840000e-6 2.984731073330000e-6
3.029839506900000e-6 3.075629667140000e-6 3.122111857030000e-6 3.169296535270000e-6
3.217194318590000e-6 3.265815984210000e-6 3.315172472200000e-6 3.365274887990000e-6
3.416134504820000e-6 3.467762766330000e-6 3.520171289079999e-6 3.573371865240000e-6
3.627376465129999e-6 3.682197240030000e-6 3.737846524850000e-6 3.794336840900001e-6
3.851680898750001e-6 3.909891601060000e-6 3.968982045460001e-6 4.028965527570000e-6
4.089855543930000e-6 4.151665795030000e-6 4.214410188460000e-6 4.278102841950000e-6
4.342758086630000e-6 4.408390470210001e-6 4.475014760230000e-6 4.542645947460000e-6
4.611299249190001e-6 4.680990112710001e-6 4.751734218750000e-6 4.823547485030000e-6
4.896446069850000e-6 4.970446375690000e-6 5.045565052940001e-6 5.121819003600001e-6
5.199225385159999e-6 5.277801614350000e-6 5.357565371180000e-6 5.438534602820001e-6
5.520727527680000e-6 5.604162639540000e-6 5.688858711620000e-6 5.774834800920000e-6
5.862110252410000e-6 5.950704703440000e-6 6.040638088140000e-6 6.131930641880000e-6
6.224602905889999e-6 6.318675731820001e-6 6.414170286440001e-6 6.511108056429999e-6
6.609510853210000e-6 6.709400817810001e-6 6.810800425899998e-6 6.913732492820000e-6
7.018220178720002e-6 7.124286993770000e-6 7.231956803450002e-6 7.341253833920001e-6
7.452202677470000e-6 7.564828298070001e-6 7.679156036940000e-6 7.795211618320000e-6
7.913021155199999e-6 8.032611155230002e-6 8.154008526649999e-6 8.277240584390000e-6
8.402335056180000e-6 8.529320088810001e-6 8.658224254440000e-6 8.789076557049999e-6
8.921906438970002e-6 9.056743787480002e-6 9.193618941550003e-6 9.332562698660000e-6
9.473606321760000e-6 9.616781546240000e-6 9.762120587150001e-6 9.909656146370001e-6
1.005942142000000e-5 1.021145010590000e-5 1.036577641120000e-5 1.052243505990000e-5
1.068146130090000e-5 1.084289091570000e-5 1.100676022670000e-5 1.117310610530000e-5
1.134196597980000e-5 1.151337784450000e-5 1.168738026780000e-5 1.186401240100000e-5
1.204331398700000e-5 1.222532536950000e-5 1.241008750170000e-5 1.259764195600000e-5
1.278803093290000e-5 1.298129727070000e-5 1.317748445520000e-5 1.337663662920000e-5
1.357879860290000e-5 1.378401586360000e-5 1.399233458600000e-5 1.420380164280000e-5
1.441846461480000e-5 1.463637180220000e-5 1.485757223500000e-5 1.508211568420000e-5
1.531005267300000e-5 1.554143448840000e-5 1.577631319200000e-5 1.601474163270000e-5
1.625677345780000e-5 1.650246312550000e-5 1.675186591700000e-5 1.700503794910000e-5
1.726203618640000e-5 1.752291845470000e-5 1.778774345350000e-5 1.805657076970000e-5
1.832946089050000e-5 1.860647521730000e-5 1.888767607950000e-5 1.917312674860000e-5
1.946289145200000e-5 1.975703538810000e-5 2.005562474050000e-5 2.035872669320000e-5
2.066640944520000e-5 2.097874222650000e-5 2.129579531330000e-5 2.161764004389999e-5
2.194434883470000e-5 2.227599519660000e-5 2.261265375140000e-5 2.295440024870000e-5
2.330131158290000e-5 2.365346581050000e-5 2.401094216760000e-5 2.437382108810000e-5
2.474218422110000e-5 2.511611445000000e-5 2.549569591060000e-5 2.588101401029999e-5
2.627215544740000e-5 2.666920823020000e-5 2.707226169749999e-5 2.748140653780000e-5
2.789673481049999e-5 2.831833996630000e-5 2.874631686800000e-5 2.918076181230000e-5
2.962177255109999e-5 3.006944831370000e-5 3.052388982900000e-5 3.098519934830000e-5
3.145348066820000e-5 3.192883915390000e-5 3.241138176320001e-5 3.290121707010001e-5
3.339845528960001e-5 3.390320830240000e-5 3.441558968020000e-5 3.493571471080000e-5
3.546370042460000e-5 3.599966562070000e-5 3.654373089330000e-5 3.709601865959999e-5
3.765665318660000e-5 3.822576061940000e-5 3.880346900970000e-5 3.938990834410000e-5
3.998521057410000e-5 4.058950964520000e-5 4.120294152720000e-5 4.182564424480000e-5
4.245775790890000e-5 4.309942474760000e-5 4.375078913870000e-5 4.441199764200000e-5
4.508319903210000e-5 4.576454433210000e-5 4.645618684770001e-5 4.715828220130000e-5
4.787098836740000e-5 4.859446570779999e-5 4.932887700799999e-5 5.007438751370000e-5
5.083116496779999e-5 5.159937964840000e-5 5.237920440720000e-5 5.317081470789999e-5
5.397438866630001e-5 5.479010708980000e-5 5.561815351849999e-5 5.645871426640001e-5
5.731197846330001e-5 5.817813809700000e-5 5.905738805730000e-5 5.994992617910000e-5
6.085595328709999e-5 6.177567324140000e-5 6.270929298279999e-5 6.365702257960002e-5
6.461907527510000e-5 6.559566753520000e-5 6.658701909710000e-5 6.759335301930001e-5
6.861489573110001e-5 6.965187708389999e-5 7.070453040289999e-5 7.177309253950000e-5
7.285780392470000e-5 7.395890862319999e-5 7.507665438810001e-5 7.621129271700001e-5
7.736307890830002e-5 7.853227211869999e-5 7.971913542160001e-5 8.092393586640000e-5
8.214694453810001e-5 8.338843661889999e-5 8.464869144969999e-5 8.592799259320000e-5
8.722662789750000e-5 8.854488956119999e-5 8.988307419850001e-5 9.124148290670000e-5
9.262042133349999e-5 9.402019974590001e-5 9.544113309980000e-5 9.688354111140002e-5
9.834774832839999e-5 9.983408420369999e-5 1.013428831690000e-4 1.028744847110000e-4
1.044292334460000e-4 1.060074791980000e-4 1.076095770810000e-4 1.092358875730000e-4
1.108867766000000e-4 1.125626156200000e-4 1.142637817030000e-4 1.159906576190000e-4
1.177436319230000e-4 1.195230990400000e-4 1.213294593590000e-4 1.231631193180000e-4
1.250244914980000e-4 1.269139947170000e-4 1.288320541200000e-4 1.307791012780000e-4
1.327555742860000e-4 1.347619178590000e-4 1.367985834310000e-4 1.388660292620000e-4
1.409647205350000e-4 1.430951294650000e-4 1.452577354030000e-4 1.474530249440000e-4
1.496814920370000e-4 1.519436380980000e-4 1.542399721190000e-4 1.565710107840000e-4
1.589372785870000e-4 1.613393079480000e-4 1.637776393340000e-4 1.662528213800000e-4
1.687654110120000e-4 1.713159735730000e-4 1.739050829520000e-4 1.765333217070000e-4
1.792012812050000e-4 1.819095617470000e-4 1.846587727080000e-4 1.874495326720000e-4
1.902824695710000e-4 1.931582208290000e-4 1.960774335020000e-4 1.990407644240000e-4
2.020488803580000e-4 2.051024581420000e-4 2.082021848450000e-4 2.113487579180000e-4
2.145428853530000e-4 2.177852858420000e-4 2.210766889390000e-4 2.244178352240000e-4
2.278094764690000e-4 2.312523758070000e-4 2.347473079050000e-4 2.382950591370000e-4
2.418964277640000e-4 2.455522241070000e-4 2.492632707360000e-4 2.530304026530000e-4
2.568544674780000e-4 2.607363256420000e-4 2.646768505790000e-4 2.686769289240000e-4
2.727374607120001e-4 2.768593595790000e-4 2.810435529700000e-4 2.852909823450000e-4
2.896026033960000e-4 2.939793862540000e-4 2.984223157140000e-4 3.029323914540000e-4
3.075106282600000e-4 3.121580562550000e-4 3.168757211300000e-4 3.216646843780000e-4
3.265260235380000e-4 3.314608324310000e-4 3.364702214089999e-4 3.415553176060000e-4
3.467172651910000e-4 3.519572256230000e-4 3.572763779160000e-4 3.626759189010000e-4
3.681570634980000e-4 3.737210449870000e-4 3.793691152880001e-4 3.851025452410000e-4
3.909226248910000e-4 3.968306637810000e-4 4.028279912439999e-4 4.089159567049999e-4
4.150959299809999e-4 4.213693015920000e-4 4.277374830739999e-4 4.342019072940000e-4
4.407640287760000e-4 4.474253240230000e-4 4.541872918550000e-4 4.610514537450000e-4
4.680193541570000e-4 4.750925608969999e-4 4.822726654690000e-4 4.895612834240000e-4
4.969600547339999e-4 5.044706441529999e-4 5.120947415940000e-4 5.198340625130000e-4
5.276903482900000e-4 5.356653666200001e-4 5.437609119190000e-4 5.519788057160000e-4
5.603208970730000e-4 5.687890629960001e-4 5.773852088580000e-4 5.861112688280000e-4
5.949692063050000e-4 6.039610143650000e-4 6.130887162000000e-4 6.223543655829999e-4
6.317600473239999e-4 6.413078777410000e-4 6.510000051360000e-4 6.608386102779999e-4
6.708259068959999e-4 6.809641421730000e-4 6.912555972550000e-4 7.017025877619999e-4
7.123074643120000e-4 7.230726130459999e-4 7.340004561690000e-4 7.450934524910000e-4
7.563540979829999e-4 7.677849263380000e-4 7.793885095410000e-4 7.911674584470001e-4
8.031244233679999e-4 8.152620946730000e-4 8.275832033880000e-4 8.400905218159998e-4
8.527868641550000e-4 8.656750871370001e-4 8.787580906650000e-4 8.920388184709999e-4
9.055202587740002e-4 9.192054449560001e-4 9.330974562400002e-4 9.471994183889999e-4
9.615145044030001e-4 9.760459352370001e-4 9.907969805240000e-4 1.005770959310000e-3
1.020971240810000e-3 1.036401245140000e-3 1.052064444130000e-3 1.067964362050000e-3
1.084104576460000e-3 1.100488718980000e-3 1.117120476100000e-3 1.134003590030000e-3
1.151141859570000e-3 1.168539140870000e-3 1.186199348410000e-3 1.204126455810000e-3
1.222324496740000e-3 1.240797565850000e-3 1.259549819630000e-3 1.278585477440000e-3
1.297908822380000e-3 1.317524202280000e-3 1.337436030680000e-3 1.357648787830000e-3
1.378167021690000e-3 1.398995348940000e-3 1.420138456040000e-3 1.441601100290000e-3
1.463388110870000e-3 1.485504389950000e-3 1.507954913780000e-3 1.530744733830000e-3
1.553878977900000e-3 1.577362851300000e-3 1.601201638000000e-3 1.625400701810000e-3
1.649965487650000e-3 1.674901522670000e-3 1.700214417610000e-3 1.725909867970000e-3
1.751993655320000e-3 1.778471648640000e-3 1.805349805580000e-3 1.832634173850000e-3
1.860330892540000e-3 1.888446193520000e-3 1.916986402870000e-3 1.945957942240000e-3
1.975367330360000e-3 2.005221184470000e-3 2.035526221800000e-3 2.066289261110001e-3
2.097517224230000e-3 2.129217137570000e-3 2.161396133750000e-3 2.194061453180000e-3
2.227220445700000e-3 2.260880572210000e-3 2.295049406380000e-3 2.329734636360000e-3
2.364944066450000e-3 2.400685618940000e-3 2.436967335820000e-3 2.473797380640000e-3
2.511184040300000e-3 2.549135726960000e-3 2.587660979910000e-3 2.626768467510000e-3