<UPF version="2.0.1">
<PP_INFO>
Generated by new atomic code, or converted to UPF format
Author:
Generation date:
Pseudopotential type: US
Element: Ni
Functional:  SLA  PZ   NOGX NOGC
Suggested minimum cutoff for wavefunctions:   0. Ry
Suggested minimum cutoff for charge density:   0. Ry
The Pseudo was generated with a Scalar-Relativistic Calculation
L component and cutoff radius for Local Potential:  0   0.0000
Valence configuration:
nl pn  l   occ       Rcut    Rcut US       E pseu
4S  0  0  1.00      2.000      2.500     0.000000
3D  0  2  9.00      2.000      2.500     0.000000
Generation configuration: not available.
</PP_INFO>
<!--
END OF HUMAN READABLE SECTION
-->
<PP_HEADER generated="Generated by new atomic code, or converted to UPF format" author="" date="" comment="" element="Ni" pseudo_type="US" relativistic="scalar" is_ultrasoft="true" is_paw="false" is_coulomb="false" has_so="false" has_wfc="false" has_gipaw="false" paw_as_gipaw="false" core_correction="true" functional=" SLA  PZ   NOGX NOGC" z_valence="1.000000000000e1" total_psenergy="-7.305868500700e1" wfc_cutoff="0.000000000000e0" rho_cutoff="0.000000000000e0" l_max="2" l_max_rho="0" l_local="0" mesh_size="1203" number_of_wfc="2" number_of_proj="6"/>
<PP_MESH dx="1.200000000000e-2" mesh="1203" xmin="-7.000000000001e0" rmax="5.984725042370e1" zmesh="2.800000000000e1">
<PP_R>
3.256721305550000e-5 3.296037385910000e-5 3.335828101339999e-5 3.376099181790000e-5
3.416856426350000e-5 3.458105704149999e-5 3.499852955139999e-5 3.542104191000000e-5
3.584865495990000e-5 3.628143027800000e-5 3.671943018480000e-5 3.716271775300000e-5
3.761135681680000e-5 3.806541198090000e-5 3.852494863010000e-5 3.899003293860001e-5
3.946073187910000e-5 3.993711323319999e-5 4.041924560060000e-5 4.090719840930000e-5
4.140104192520000e-5 4.190084726260000e-5 4.240668639450000e-5 4.291863216249999e-5
4.343675828769999e-5 4.396113938119999e-5 4.449185095470001e-5 4.502896943160001e-5
4.557257215790001e-5 4.612273741340000e-5 4.667954442270000e-5 4.724307336710000e-5
4.781340539570000e-5 4.839062263740001e-5 4.897480821220000e-5 4.956604624410000e-5
5.016442187229999e-5 5.077002126400000e-5 5.138293162640000e-5 5.200324121979999e-5
5.263103936979999e-5 5.326641648040001e-5 5.390946404700000e-5 5.456027466960000e-5
5.521894206600000e-5 5.588556108550000e-5 5.656022772239999e-5 5.724303912980001e-5
5.793409363370000e-5 5.863349074729999e-5 5.934133118479999e-5 6.005771687649998e-5
6.078275098330001e-5 6.151653791130000e-5 6.225918332700000e-5 6.301079417270000e-5
6.377147868160000e-5 6.454134639359999e-5 6.532050817110000e-5 6.610907621460001e-5
6.690716407939999e-5 6.771488669129999e-5 6.853236036399998e-5 6.935970281500001e-5
7.019703318310000e-5 7.104447204520000e-5 7.190214143410001e-5 7.277016485550001e-5
7.364866730649999e-5 7.453777529280002e-5 7.543761684760000e-5 7.634832154950000e-5
7.727002054170001e-5 7.820284655040002e-5 7.914693390409999e-5 8.010241855310001e-5
8.106943808869998e-5 8.204813176349999e-5 8.303864051109999e-5 8.404110696640000e-5
8.505567548629999e-5 8.608249217050000e-5 8.712170488230001e-5 8.817346327010000e-5
8.923791878900001e-5 9.031522472250000e-5 9.140553620430001e-5 9.250901024130000e-5
9.362580573570000e-5 9.475608350790001e-5 9.590000631980001e-5 9.705773889829999e-5
9.822944795900000e-5 9.941530222989998e-5 1.006154724760000e-4 1.018301315240000e-4
1.030594542870000e-4 1.043036177900000e-4 1.055628011940000e-4 1.068371858230000e-4
1.081269551920000e-4 1.094322950290000e-4 1.107533933060000e-4 1.120904402630000e-4
1.134436284370000e-4 1.148131526900000e-4 1.161992102340000e-4 1.176020006660000e-4
1.190217259900000e-4 1.204585906470000e-4 1.219128015500000e-4 1.233845681070000e-4
1.248741022540000e-4 1.263816184890000e-4 1.279073338940000e-4 1.294514681770000e-4
1.310142436950000e-4 1.325958854910000e-4 1.341966213230000e-4 1.358166817000000e-4
1.374562999150000e-4 1.391157120740000e-4 1.407951571360000e-4 1.424948769440000e-4
1.442151162600000e-4 1.459561228020000e-4 1.477181472790000e-4 1.495014434230000e-4
1.513062680340000e-4 1.531328810090000e-4 1.549815453840000e-4 1.568525273680000e-4
1.587460963880000e-4 1.606625251200000e-4 1.626020895330000e-4 1.645650689280000e-4
1.665517459780000e-4 1.685624067660000e-4 1.705973408330000e-4 1.726568412110000e-4
1.747412044730000e-4 1.768507307700000e-4 1.789857238780000e-4 1.811464912400000e-4
1.833333440090000e-4 1.855465970970000e-4 1.877865692150000e-4 1.900535829240000e-4
1.923479646770000e-4 1.946700448690000e-4 1.970201578840000e-4 1.993986421430000e-4
2.018058401500000e-4 2.042420985470000e-4 2.067077681600000e-4 2.092032040480000e-4
2.117287655590000e-4 2.142848163780000e-4 2.168717245810000e-4 2.194898626870001e-4
2.221396077120000e-4 2.248213412250000e-4 2.275354494000000e-4 2.302823230720001e-4
2.330623577970000e-4 2.358759539040000e-4 2.387235165560000e-4 2.416054558070000e-4
2.445221866610000e-4 2.474741291330000e-4 2.504617083070000e-4 2.534853543990001e-4
2.565455028210000e-4 2.596425942380000e-4 2.627770746380000e-4 2.659493953900000e-4
2.691600133150000e-4 2.724093907470000e-4 2.756979956020000e-4 2.790263014450000e-4
2.823947875570001e-4 2.858039390070000e-4 2.892542467170000e-4 2.927462075390000e-4
2.962803243210001e-4 2.998571059820000e-4 3.034770675839999e-4 3.071407304079999e-4
3.108486220280000e-4 3.146012763870000e-4 3.183992338730000e-4 3.222430413990000e-4
3.261332524800000e-4 3.300704273130000e-4 3.340551328570001e-4 3.380879429180000e-4
3.421694382270001e-4 3.463002065270000e-4 3.504808426540000e-4 3.547119486290000e-4
3.589941337370000e-4 3.633280146210000e-4 3.677142153660000e-4 3.721533675940000e-4
3.766461105499999e-4 3.811930911969999e-4 3.857949643080000e-4 3.904523925600000e-4
3.951660466320000e-4 3.999366052970000e-4 4.047647555240000e-4 4.096511925750001e-4
4.145966201060000e-4 4.196017502669999e-4 4.246673038050000e-4 4.297940101690000e-4
4.349826076120000e-4 4.402338433030001e-4 4.455484734280001e-4 4.509272633029999e-4
4.563709874830000e-4 4.618804298740001e-4 4.674563838450000e-4 4.730996523440000e-4
4.788110480089999e-4 4.845913932930000e-4 4.904415205750000e-4 4.963622722830001e-4
5.023545010159999e-4 5.084190696660000e-4 5.145568515400000e-4 5.207687304900000e-4
5.270556010359999e-4 5.334183685010000e-4 5.398579491320000e-4 5.463752702400000e-4
5.529712703320000e-4 5.596468992419999e-4 5.664031182730000e-4 5.732409003310000e-4
5.801612300700000e-4 5.871651040280001e-4 5.942535307760000e-4 6.014275310590000e-4
6.086881379460001e-4 6.160363969770001e-4 6.234733663130001e-4 6.310001168910000e-4
6.386177325769999e-4 6.463273103200001e-4 6.541299603120000e-4 6.620268061490000e-4
6.700189849900000e-4 6.781076477219999e-4 6.862939591280002e-4 6.945790980490001e-4
7.029642575610000e-4 7.114506451409999e-4 7.200394828430000e-4 7.287320074749999e-4
7.375294707750001e-4 7.464331395940000e-4 7.554442960739999e-4 7.645642378390000e-4
7.737942781750000e-4 7.831357462240001e-4 7.925899871730001e-4 8.021583624509999e-4
8.118422499190000e-4 8.216430440729999e-4 8.315621562459999e-4 8.416010148070001e-4
8.517610653670001e-4 8.620437709930000e-4 8.724506124120001e-4 8.829830882260000e-4
8.936427151309999e-4 9.044310281310002e-4 9.153495807629998e-4 9.263999453149998e-4
9.375837130600001e-4 9.489024944800001e-4 9.603579195000000e-4 9.719516377189999e-4
9.836853186530000e-4 9.955606519730001e-4 1.007579347750000e-3 1.019743136690000e-3
1.032053770400000e-3 1.044513021650000e-3 1.057122684570000e-3 1.069884574980000e-3
1.082800530630000e-3 1.095872411420000e-3 1.109102099730000e-3 1.122491500660000e-3
1.136042542300000e-3 1.149757176040000e-3 1.163637376790000e-3 1.177685143340000e-3
1.191902498580000e-3 1.206291489850000e-3 1.220854189170000e-3 1.235592693600000e-3
1.250509125520000e-3 1.265605632910000e-3 1.280884389710000e-3 1.296347596060000e-3
1.311997478710000e-3 1.327836291270000e-3 1.343866314540000e-3 1.360089856890000e-3
1.376509254520000e-3 1.393126871870000e-3 1.409945101900000e-3 1.426966366450000e-3
1.444193116630000e-3 1.461627833110000e-3 1.479273026530000e-3 1.497131237820000e-3
1.515205038590000e-3 1.533497031510000e-3 1.552009850650000e-3 1.570746161890000e-3
1.589708663290000e-3 1.608900085480000e-3 1.628323192070000e-3 1.647980780010000e-3
1.667875680040000e-3 1.688010757040000e-3 1.708388910510000e-3 1.729013074930000e-3
1.749886220220000e-3 1.771011352160000e-3 1.792391512790000e-3 1.814029780890000e-3
1.835929272420000e-3 1.858093140930000e-3 1.880524578070000e-3 1.903226813990000e-3
1.926203117870000e-3 1.949456798320000e-3 1.972991203920000e-3 1.996809723670000e-3
2.020915787460000e-3 2.045312866620000e-3 2.070004474370000e-3 2.094994166340000e-3
2.120285541090000e-3 2.145882240620000e-3 2.171787950900000e-3 2.198006402399999e-3
2.224541370620000e-3 2.251396676640000e-3 2.278576187670000e-3 2.306083817610000e-3
2.333923527610000e-3 2.362099326630000e-3 2.390615272030000e-3 2.419475470160000e-3
2.448684076940000e-3 2.478245298460000e-3 2.508163391580000e-3 2.538442664570000e-3
2.569087477680000e-3 2.600102243840000e-3 2.631491429210000e-3 2.663259553890001e-3
2.695411192550000e-3 2.727950975080000e-3 2.760883587260000e-3 2.794213771450000e-3
2.827946327250000e-3 2.862086112210000e-3 2.896638042520000e-3 2.931607093710000e-3
2.966998301390000e-3 3.002816761950000e-3 3.039067633310000e-3 3.075756135660000e-3
3.112887552210000e-3 3.150467229950000e-3 3.188500580410000e-3 3.226993080470000e-3
3.265950273110000e-3 3.305377768230000e-3 3.345281243460000e-3 3.385666444970000e-3
3.426539188290000e-3 3.467905359190000e-3 3.509770914440000e-3 3.552141882770000e-3
3.595024365680000e-3 3.638424538300000e-3 3.682348650340000e-3 3.726803026960001e-3
3.771794069640000e-3 3.817328257200000e-3 3.863412146610000e-3 3.910052374060000e-3
3.957255655800001e-3 4.005028789190000e-3 4.053378653650000e-3 4.102312211640000e-3
4.151836509680001e-3 4.201958679350000e-3 4.252685938330000e-3 4.304025591429999e-3
4.355985031660000e-3 4.408571741259999e-3 4.461793292810000e-3 4.515657350300001e-3
4.570171670250000e-3 4.625344102820000e-3 4.681182592940000e-3 4.737695181429999e-3
4.794890006219999e-3 4.852775303460001e-3 4.911359408720000e-3 4.970650758230000e-3
5.030657890040001e-3 5.091389445269999e-3 5.152854169390000e-3 5.215060913400000e-3
5.278018635200000e-3 5.341736400809999e-3 5.406223385690000e-3 5.471488876069999e-3
5.537542270310000e-3 5.604393080210000e-3 5.672050932390000e-3 5.740525569710000e-3
5.809826852630000e-3 5.879964760660000e-3 5.950949393769999e-3 6.022790973880000e-3
6.095499846300000e-3 6.169086481220000e-3 6.243561475260000e-3 6.318935552950000e-3
6.395219568270000e-3 6.472424506259999e-3 6.550561484560000e-3 6.629641755040000e-3
6.709676705380001e-3 6.790677860770000e-3 6.872656885500001e-3 6.955625584700000e-3
7.039595906000001e-3 7.124579941280000e-3 7.210589928380000e-3 7.297638252890000e-3
7.385737449920001e-3 7.474900205899999e-3 7.565139360440000e-3 7.656467908110000e-3
7.748899000389999e-3 7.842445947509999e-3 7.937122220410000e-3 8.032941452620001e-3
8.129917442280000e-3 8.228064154100000e-3 8.327395721380000e-3 8.427926448030000e-3
8.529670810650000e-3 8.632643460610002e-3 8.736859226140002e-3 8.842333114500001e-3
8.949080314110001e-3 9.057116196750002e-3 9.166456319769999e-3 9.277116428340001e-3
9.389112457710000e-3 9.502460535490000e-3 9.617176984020002e-3 9.733278322639999e-3
9.850781270170000e-3 9.969702747219999e-3 1.009005987870000e-2 1.021186999620000e-2
1.033515064070000e-2 1.045991956470000e-2 1.058619473520000e-2 1.071399433600000e-2
1.084333677060000e-2 1.097424066430000e-2 1.110672486770000e-2 1.124080845870000e-2
1.137651074550000e-2 1.151385126950000e-2 1.165284980800000e-2 1.179352637700000e-2
1.193590123410000e-2 1.207999488170000e-2 1.222582806940000e-2 1.237342179750000e-2
1.252279731970000e-2 1.267397614640000e-2 1.282698004750000e-2 1.298183105590000e-2
1.313855147040000e-2 1.329716385900000e-2 1.345769106220000e-2 1.362015619620000e-2
1.378458265620000e-2 1.395099411990000e-2 1.411941455090000e-2 1.428986820200000e-2
1.446237961880000e-2 1.463697364330000e-2 1.481367541720000e-2 1.499251038600000e-2
1.517350430220000e-2 1.535668322930000e-2 1.554207354520000e-2 1.572970194660000e-2
1.591959545230000e-2 1.611178140730000e-2 1.630628748650000e-2 1.650314169940000e-2
1.670237239320000e-2 1.690400825750000e-2 1.710807832820000e-2 1.731461199170000e-2
1.752363898930000e-2 1.773518942110000e-2 1.794929375090000e-2 1.816598281000000e-2
1.838528780200000e-2 1.860724030730000e-2 1.883187228730000e-2 1.905921608940000e-2
1.928930445160000e-2 1.952217050690000e-2 1.975784778860000e-2 1.999637023450000e-2
2.023777219220000e-2 2.048208842410000e-2 2.072935411220000e-2 2.097960486300000e-2
2.123287671320000e-2 2.148920613440000e-2 2.174863003830000e-2 2.201118578260000e-2
2.227691117560000e-2 2.254584448240000e-2 2.281802442970000e-2 2.309349021200000e-2
2.337228149670000e-2 2.365443843040000e-2 2.394000164410000e-2 2.422901225940000e-2
2.452151189440000e-2 2.481754266940000e-2 2.511714721340000e-2 2.542036867010000e-2
2.572725070380000e-2 2.603783750600000e-2 2.635217380180000e-2 2.667030485620000e-2
2.699227648060000e-2 2.731813503940000e-2 2.764792745690000e-2 2.798170122370000e-2
2.831950440380000e-2 2.866138564150000e-2 2.900739416830000e-2 2.935757980990000e-2
2.971199299380000e-2 3.007068475600000e-2 3.043370674880000e-2 3.080111124790000e-2
3.117295116030000e-2 3.154928003150000e-2 3.193015205360000e-2 3.231562207270000e-2
3.270574559730000e-2 3.310057880570000e-2 3.350017855470000e-2 3.390460238720000e-2
3.431390854120000e-2 3.472815595720000e-2 3.514740428770000e-2 3.557171390510000e-2
3.600114591090000e-2 3.643576214380000e-2 3.687562518950000e-2 3.732079838890000e-2
3.777134584770000e-2 3.822733244570000e-2 3.868882384550000e-2 3.915588650290000e-2
3.962858767560000e-2 4.010699543329999e-2 4.059117866779999e-2 4.108120710200000e-2
4.157715130110001e-2 4.207908268190000e-2 4.258707352320000e-2 4.310119697680000e-2
4.362152707710000e-2 4.414813875280000e-2 4.468110783669999e-2 4.522051107740000e-2
4.576642614980000e-2 4.631893166660000e-2 4.687810718970001e-2 4.744403324120000e-2
4.801679131540000e-2 4.859646389060001e-2 4.918313444060000e-2 4.977688744690000e-2
5.037780841100000e-2 5.098598386660001e-2 5.160150139190000e-2 5.222444962270000e-2
5.285491826440001e-2 5.349299810560000e-2 5.413878103110000e-2 5.479236003460000e-2
5.545382923249999e-2 5.612328387780000e-2 5.680082037289999e-2 5.748653628420000e-2
5.818053035620000e-2 5.888290252500000e-2 5.959375393360000e-2 6.031318694570000e-2
6.104130516090000e-2 6.177821342960001e-2 6.252401786770000e-2 6.327882587250000e-2
6.404274613749999e-2 6.481588866870000e-2 6.559836479980000e-2 6.639028720880001e-2
6.719176993389999e-2 6.800292838990001e-2 6.882387938520001e-2 6.965474113800001e-2
7.049563329390001e-2 7.134667694290000e-2 7.220799463660001e-2 7.307971040619999e-2
7.396194978050000e-2 7.485483980340001e-2 7.575850905250001e-2 7.667308765780000e-2
7.759870732030000e-2 7.853550133070000e-2 7.948360458900000e-2 8.044315362370000e-2
8.141428661159999e-2 8.239714339739999e-2 8.339186551419999e-2 8.439859620379998e-2
8.541748043700000e-2 8.644866493510001e-2 8.749229819029999e-2 8.854853048760001e-2
8.961751392630001e-2 9.069940244190001e-2 9.179435182810000e-2 9.290251975970000e-2
9.402406581459999e-2 9.515915149749999e-2 9.630794026260002e-2 9.747059753760000e-2
9.864729074700001e-2 9.983818933669999e-2 1.010434647980000e-1 1.022632906930000e-1
1.034978426790000e-1 1.047472985330000e-1 1.060118381790000e-1 1.072916437120000e-1
1.085868994280000e-1 1.098977918450000e-1 1.112245097340000e-1 1.125672441450000e-1
1.139261884330000e-1 1.153015382890000e-1 1.166934917660000e-1 1.181022493070000e-1
1.195280137770000e-1 1.209709904860000e-1 1.224313872280000e-1 1.239094143010000e-1
1.254052845440000e-1 1.269192133640000e-1 1.284514187700000e-1 1.300021214030000e-1
1.315715445660000e-1 1.331599142580000e-1 1.347674592090000e-1 1.363944109060000e-1
1.380410036340000e-1 1.397074745050000e-1 1.413940634940000e-1 1.431010134730000e-1
1.448285702440000e-1 1.465769825810000e-1 1.483465022550000e-1 1.501373840830000e-1
1.519498859530000e-1 1.537842688690000e-1 1.556407969860000e-1 1.575197376470000e-1
1.594213614220000e-1 1.613459421480000e-1 1.632937569690000e-1 1.652650863740000e-1
1.672602142360000e-1 1.692794278580000e-1 1.713230180100000e-1 1.733912789730000e-1
1.754845085790000e-1 1.776030082580000e-1 1.797470830780000e-1 1.819170417870000e-1
1.841131968660000e-1 1.863358645620000e-1 1.885853649450000e-1 1.908620219470000e-1
1.931661634090000e-1 1.954981211330000e-1 1.978582309240000e-1 2.002468326420000e-1
2.026642702510000e-1 2.051108918640000e-1 2.075870498000000e-1 2.100931006300000e-1
2.126294052300000e-1 2.151963288310000e-1 2.177942410760000e-1 2.204235160670000e-1
2.230845324260000e-1 2.257776733430000e-1 2.285033266350000e-1 2.312618848010000e-1
2.340537450780000e-1 2.368793094990000e-1 2.397389849500000e-1 2.426331832280000e-1
2.455623211050000e-1 2.485268203800000e-1 2.515271079460000e-1 2.545636158510000e-1
2.576367813570000e-1 2.607470470040000e-1 2.638948606760000e-1 2.670806756640000e-1
2.703049507320000e-1 2.735681501790000e-1 2.768707439120000e-1 2.802132075110000e-1
2.835960222970000e-1 2.870196753990000e-1 2.904846598310000e-1 2.939914745550000e-1
2.975406245600000e-1 3.011326209290000e-1 3.047679809160000e-1 3.084472280190000e-1
3.121708920560000e-1 3.159395092400000e-1 3.197536222600000e-1 3.236137803540000e-1
3.275205393910000e-1 3.314744619520000e-1 3.354761174090000e-1 3.395260820060000e-1
3.436249389450000e-1 3.477732784700000e-1 3.519716979470000e-1 3.562208019580000e-1
3.605212023790000e-1 3.648735184760000e-1 3.692783769910000e-1 3.737364122300000e-1
3.782482661580000e-1 3.828145884910000e-1 3.874360367850000e-1 3.921132765380000e-1
3.968469812810000e-1 4.016378326740000e-1 4.064865206100000e-1 4.113937433070000e-1
4.163602074140000e-1 4.213866281100000e-1 4.264737292090000e-1 4.316222432620000e-1
4.368329116630000e-1 4.421064847590000e-1 4.474437219530000e-1 4.528453918150000e-1
4.583122721970000e-1 4.638451503380000e-1 4.694448229820000e-1 4.751120964920000e-1
4.808477869640000e-1 4.866527203490000e-1 4.925277325670000e-1 4.984736696290001e-1
5.044913877610000e-1 5.105817535240000e-1 5.167456439420000e-1 5.229839466260000e-1
5.292975599020000e-1 5.356873929420000e-1 5.421543658910000e-1 5.486994100060000e-1
5.553234677840000e-1 5.620274931019999e-1 5.688124513490001e-1 5.756793195720000e-1
5.826290866130000e-1 5.896627532480000e-1 5.967813323390000e-1 6.039858489730000e-1
6.112773406120001e-1 6.186568572460000e-1 6.261254615350000e-1 6.336842289730001e-1
6.413342480350001e-1 6.490766203370000e-1 6.569124607940000e-1 6.648428977810000e-1
6.728690732930001e-1 6.809921431150000e-1 6.892132769820000e-1 6.975336587520000e-1
7.059544865750000e-1 7.144769730629999e-1 7.231023454700000e-1 7.318318458639999e-1
7.406667313090000e-1 7.496082740430000e-1 7.586577616630001e-1 7.678164973119999e-1
7.770857998639999e-1 7.864670041139999e-1 7.959614609710000e-1 8.055705376540001e-1
8.152956178869999e-1 8.251381020969999e-1 8.350994076199999e-1 8.451809689010000e-1
8.553842377020000e-1 8.657106833109999e-1 8.761617927540000e-1 8.867390710090000e-1
8.974440412240000e-1 9.082782449300000e-1 9.192432422740000e-1 9.303406122329999e-1
9.415719528480000e-1 9.529388814500001e-1 9.644430348989999e-1 9.760860698109999e-1
9.878696628040000e-1 9.997955107360001e-1 1.011865330950000e0 1.024080861520000e0
1.036443861500000e0 1.048956111190000e0 1.061619412370000e0 1.074435588580000e0
1.087406485380000e0 1.100533970580000e0 1.113819934580000e0 1.127266290580000e0
1.140874974870000e0 1.154647947120000e0 1.168587190680000e0 1.182694712810000e0
1.196972545020000e0 1.211422743350000e0 1.226047388650000e0 1.240848586890000e0
1.255828469470000e0 1.270989193520000e0 1.286332942210000e0 1.301861925060000e0
1.317578378290000e0 1.333484565070000e0 1.349582775940000e0 1.365875329060000e0
1.382364570590000e0 1.399052875000000e0 1.415942645450000e0 1.433036314080000e0
1.450336342420000e0 1.467845221700000e0 1.485565473230000e0 1.503499648750000e0
1.521650330820000e0 1.540020133170000e0 1.558611701070000e0 1.577427711760000e0
1.596470874760000e0 1.615743932330000e0 1.635249659810000e0 1.654990866070000e0
1.674970393880000e0 1.695191120320000e0 1.715655957200000e0 1.736367851510000e0
1.757329785800000e0 1.778544778600000e0 1.800015884930000e0 1.821746196660000e0
1.843738842980000e0 1.865996990890000e0 1.888523845590000e0 1.911322650980000e0
1.934396690140000e0 1.957749285770000e0 1.981383800670000e0 2.005303638270000e0
2.029512243050000e0 2.054013101110000e0 2.078809740600000e0 2.103905732290000e0
2.129304690030000e0 2.155010271330000e0 2.181026177840000e0 2.207356155880000e0
2.234003997030000e0 2.260973538610000e0 2.288268664280000e0 2.315893304600000e0
2.343851437560000e0 2.372147089170000e0 2.400784334060000e0 2.429767296050000e0
2.459100148730000e0 2.488787116070000e0 2.518832473060000e0 2.549240546280000e0
2.580015714550000e0 2.611162409530000e0 2.642685116420000e0 2.674588374520000e0
2.706876777980000e0 2.739554976370000e0 2.772627675410000e0 2.806099637620000e0
2.839975683030000e0 2.874260689850000e0 2.908959595180000e0 2.944077395710000e0
2.979619148480000e0 3.015589971550000e0 3.051995044780000e0 3.088839610580000e0
3.126128974620000e0 3.163868506640000e0 3.202063641180000e0 3.240719878430000e0
3.279842784930000e0 3.319437994470000e0 3.359511208810000e0 3.400068198570000e0
3.441114804030000e0 3.482656935970000e0 3.524700576520000e0 3.567251780040000e0
3.610316673990000e0 3.653901459780000e0 3.698012413690000e0 3.742655887780000e0
3.787838310780000e0 3.833566189050000e0 3.879846107470000e0 3.926684730430000e0
3.974088802780000e0 4.022065150790000e0 4.070620683130000e0 4.119762391880000e0
4.169497353540000e0 4.219832730010000e0 4.270775769700000e0 4.322333808470000e0
4.374514270780000e0 4.427324670710000e0 4.480772613040000e0 4.534865794360000e0
4.589612004200000e0 4.645019126100000e0 4.701095138780000e0 4.757848117280000e0
4.815286234130000e0 4.873417760530000e0 4.932251067500000e0 4.991794627140000e0
5.052057013840000e0 5.113046905480000e0 5.174773084710000e0 5.237244440200000e0
5.300469967950000e0 5.364458772530000e0 5.429220068440000e0 5.494763181420000e0
5.561097549800000e0 5.628232725830000e0 5.696178377110000e0 5.764944287910000e0
5.834540360650000e0 5.904976617280000e0 5.976263200750000e0 6.048410376450000e0
6.121428533700000e0 6.195328187230000e0 6.270119978730000e0 6.345814678330000e0
6.422423186220000e0 6.499956534150000e0 6.578425887040000e0 6.657842544640000e0
6.738217943060000e0 6.819563656510000e0 6.901891398910000e0 6.985213025600000e0
7.069540535040000e0 7.154886070530000e0 7.241261921980000e0 7.328680527650000e0
7.417154475990000e0 7.506696507390000e0 7.597319516060000e0 7.689036551860000e0
7.781860822220000e0 7.875805693980000e0 7.970884695370000e0 8.067111517930000e0
8.164500018489999e0 8.263064221160000e0 8.362818319360001e0 8.463776677840000e0
8.565953834789999e0 8.669364503900001e0 8.774023576479999e0 8.879946123610001e0
8.987147398330000e0 9.095642837810001e0 9.205448065570000e0 9.316578893759999e0
9.429051325400000e0 9.542881556739999e0 9.658085979510000e0 9.774681183340000e0
9.892683958159999e0 1.001211129660000e1 1.013298039630000e1 1.025530866270000e1
1.037911371130000e1 1.050441337020000e1 1.063122568280000e1 1.075956891020000e1
1.088946153420000e1 1.102092225940000e1 1.115397001650000e1 1.128862396450000e1
1.142490349390000e1 1.156282822920000e1 1.170241803170000e1 1.184369300260000e1
1.198667348580000e1 1.213138007060000e1 1.227783359520000e1 1.242605514900000e1
1.257606607620000e1 1.272788797870000e1 1.288154271900000e1 1.303705242380000e1
1.319443948660000e1 1.335372657150000e1 1.351493661610000e1 1.367809283490000e1
1.384321872280000e1 1.401033805800000e1 1.417947490620000e1 1.435065362320000e1
1.452389885920000e1 1.469923556170000e1 1.487668897950000e1 1.505628466620000e1
1.523804848390000e1 1.542200660700000e1 1.560818552570000e1 1.579661205000000e1
1.598731331380000e1 1.618031677830000e1 1.637565023640000e1 1.657334181640000e1
1.677341998630000e1 1.697591355760000e1 1.718085168990000e1 1.738826389440000e1
1.759818003900000e1 1.781063035200000e1 1.802564542650000e1 1.824325622510000e1
1.846349408410000e1 1.868639071810000e1 1.891197822480000e1 1.914028908890000e1
1.937135618780000e1 1.960521279540000e1 1.984189258760000e1 2.008142964650000e1
2.032385846610000e1 2.056921395630000e1 2.081753144900000e1 2.106884670210000e1
2.132319590560000e1 2.158061568610000e1 2.184114311250000e1 2.210481570140000e1
2.237167142180000e1 2.264174870170000e1 2.291508643240000e1 2.319172397520000e1
2.347170116640000e1 2.375505832300000e1 2.404183624910000e1 2.433207624120000e1
2.462582009430000e1 2.492311010800000e1 2.522398909270000e1 2.552850037540000e1
2.583668780620000e1 2.614859576480000e1 2.646426916630000e1 2.678375346830000e1
2.710709467710000e1 2.743433935430000e1 2.776553462390000e1 2.810072817840000e1
2.843996828630000e1 2.878330379880000e1 2.913078415680000e1 2.948245939800000e1
2.983838016430000e1 3.019859770900000e1 3.056316390390000e1 3.093213124720000e1
3.130555287080000e1 3.168348254820000e1 3.206597470180000e1 3.245308441120001e1
3.284486742080000e1 3.324138014810000e1 3.364267969150000e1 3.404882383900000e1
3.445987107590000e1 3.487588059380000e1 3.529691229880001e1 3.572302682020000e1
3.615428551910000e1 3.659075049760000e1 3.703248460750000e1 3.747955145910000e1
3.793201543090000e1 3.838994167840000e1 3.885339614390000e1 3.932244556560000e1
3.979715748740000e1 4.027760026860000e1 4.076384309390000e1 4.125595598300000e1
4.175400980110000e1 4.225807626870000e1 4.276822797240000e1 4.328453837470000e1
4.380708182540000e1 4.433593357160000e1 4.487116976880000e1 4.541286749200000e1
4.596110474660001e1 4.651596047970000e1 4.707751459150000e1 4.764584794680000e1
4.822104238650001e1 4.880318073960001e1 4.939234683510001e1 4.998862551380000e1
5.059210264100000e1 5.120286511850001e1 5.182100089690000e1 5.244659898910001e1
5.307974948210000e1 5.372054355080000e1 5.436907347060000e1 5.502543263090001e1
5.568971554860000e1 5.636201788160001e1 5.704243644260000e1 5.773106921290001e1
5.842801535700000e1 5.913337523630000e1 5.984725042370000e1
</PP_R>
<PP_RAB>
3.908065566660000e-7 3.955244863090001e-7 4.002993721610000e-7 4.051319018150000e-7
4.100227711630000e-7 4.149726844980001e-7 4.199823546170000e-7 4.250525029200000e-7
4.301838595190000e-7 4.353771633359999e-7 4.406331622180000e-7 4.459526130360000e-7
4.513362818010000e-7 4.567849437710000e-7 4.622993835619999e-7 4.678803952630000e-7
4.735287825490000e-7 4.792453587980000e-7 4.850309472080000e-7 4.908863809110001e-7
4.968125031020000e-7 5.028101671520000e-7 5.088802367340000e-7 5.150235859500000e-7
5.212410994530000e-7 5.275336725740001e-7 5.339022114560001e-7 5.403476331790001e-7
5.468708658950000e-7 5.534728489609999e-7 5.601545330730000e-7 5.669168804060001e-7
5.737608647490001e-7 5.806874716479999e-7 5.876976985470001e-7 5.947925549299999e-7
6.019730624679999e-7 6.092402551680001e-7 6.165951795170001e-7 6.240388946379999e-7
6.315724724370000e-7 6.391969977650001e-7 6.469135685640000e-7 6.547232960350000e-7
6.626273047920001e-7 6.706267330259998e-7 6.787227326679998e-7 6.869164695570000e-7
6.952091236050000e-7 7.036018889669998e-7 7.120959742170001e-7 7.206926025189999e-7
7.293930118000000e-7 7.381984549350000e-7 7.471101999239998e-7 7.561295300720001e-7
7.652577441790001e-7 7.744961567240001e-7 7.838460980530002e-7 7.933089145759999e-7
8.028859689519997e-7 8.125786402959999e-7 8.223883243680000e-7 8.323164337800002e-7
8.423643981969999e-7 8.525336645420001e-7 8.628256972090000e-7 8.732419782659999e-7
8.837840076780001e-7 8.944533035139999e-7 9.052514021710000e-7 9.161798585950001e-7
9.272402465010000e-7 9.384341586050002e-7 9.497632068490001e-7 9.612290226370000e-7
9.728332570649998e-7 9.845775811619999e-7 9.964636861329998e-7 1.008493283600000e-6
1.020668105840000e-6 1.032989906050000e-6 1.045460458590000e-6 1.058081559240000e-6
1.070855025470000e-6 1.083782696670000e-6 1.096866434450000e-6 1.110108122900000e-6
1.123509668830000e-6 1.137073002090000e-6 1.150800075840000e-6 1.164692866780000e-6
1.178753375510000e-6 1.192983626760000e-6 1.207385669710000e-6 1.221961578290000e-6
1.236713451450000e-6 1.251643413480000e-6 1.266753614320000e-6 1.282046229880000e-6
1.297523462300000e-6 1.313187540350000e-6 1.329040719670000e-6 1.345085283160000e-6
1.361323541240000e-6 1.377757832270000e-6 1.394390522810000e-6 1.411224008000000e-6
1.428260711880000e-6 1.445503087770000e-6 1.462953618600000e-6 1.480614817280000e-6
1.498489227050000e-6 1.516579421860000e-6 1.534888006730000e-6 1.553417618130000e-6
1.572170924340000e-6 1.591150625890000e-6 1.610359455870000e-6 1.629800180400000e-6
1.649475598980000e-6 1.669388544880000e-6 1.689541885630000e-6 1.709938523320000e-6
1.730581395120001e-6 1.751473473630000e-6 1.772617767340000e-6 1.794017321080000e-6
1.815675216410000e-6 1.837594572110000e-6 1.859778544600000e-6 1.882230328420000e-6
1.904953156660000e-6 1.927950301440001e-6 1.951225074400000e-6 1.974780827140000e-6
1.998620951730000e-6 2.022748881200000e-6 2.047168089990000e-6 2.071882094530000e-6
2.096894453670000e-6 2.122208769240000e-6 2.147828686540000e-6 2.173757894880000e-6
2.200000128110000e-6 2.226559165160000e-6 2.253438830580000e-6 2.280642995080000e-6
2.308175576120000e-6 2.336040538430000e-6 2.364241894610000e-6 2.392783705710000e-6
2.421670081800000e-6 2.450905182570001e-6 2.480493217919999e-6 2.510438448570000e-6
2.540745186700000e-6 2.571417796530000e-6 2.602460694970000e-6 2.633878352240000e-6
2.665675292550000e-6 2.697856094700000e-6 2.730425392800000e-6 2.763387876870000e-6
2.796748293560001e-6 2.830511446850000e-6 2.864682198670000e-6 2.899265469690000e-6
2.934266239940000e-6 2.969689549590000e-6 3.005540499680000e-6 3.041824252790000e-6
3.078546033849999e-6 3.115711130860000e-6 3.153324895649999e-6 3.191392744680000e-6